14
Energy:       3.3581337
C         -0.4030600000        1.2775200000        0.3106900000
C          0.4279700000        0.1346900000       -0.2729400000
C         -0.0212700000       -1.2535600000        0.2097000000
C          0.5336026491       -2.3987252339       -0.6376600487
H          0.0054100000        2.2473400000       -0.0437000000
H         -0.3584500000        1.2581300000        1.4203400000
H         -1.4604600000        1.2138200000       -0.0171500000
H          1.4834100000        0.2838500000        0.0425000000
H          0.3897500000        0.1775100000       -1.3831400000
H         -1.1316372214       -1.3060481243        0.2229931953
H          0.3436486714       -1.3907586355        1.2507161474
H          0.1569674577       -2.3470947713       -1.6793535138
H          0.2069098443       -3.3678478594       -0.2051641317
H          1.6439095205       -2.3696064997       -0.6443343419
