14
Energy:       3.3581337
C         -0.4030600000        1.2775200000        0.3106900000
C          0.4279700000        0.1346900000       -0.2729400000
C         -0.0212700000       -1.2535600000        0.2097000000
C         -1.2711279081       -1.2143298465        1.0892580290
H          0.0054100000        2.2473400000       -0.0437000000
H         -0.3584500000        1.2581300000        1.4203400000
H         -1.4604600000        1.2138200000       -0.0171500000
H          1.4834100000        0.2838500000        0.0425000000
H          0.3897500000        0.1775100000       -1.3831400000
H          0.8073290547       -1.7453678338        0.7641328091
H         -0.2524479791       -1.8709501463       -0.6853362399
H         -1.0839851664       -0.6562595219        2.0290346804
H         -1.5621027810       -2.2508879634        1.3610308455
H         -2.1132926757       -0.7418759676        0.5404232341
