14
Energy:       3.3581337
C         -0.4030600000        1.2775200000        0.3106900000
C          0.4279700000        0.1346900000       -0.2729400000
C         -0.0212700000       -1.2535600000        0.2097000000
C          1.0854982689       -2.3061037750        0.1424562463
H          0.0054100000        2.2473400000       -0.0437000000
H         -0.3584500000        1.2581300000        1.4203400000
H         -1.4604600000        1.2138200000       -0.0171500000
H          1.4834100000        0.2838500000        0.0425000000
H          0.3897500000        0.1775100000       -1.3831400000
H         -0.8947077213       -1.5949025750       -0.3873250180
H         -0.3420084198       -1.1621359157        1.2701113467
H          1.4094219223       -2.4825824119       -0.9032845461
H          0.7040619879       -3.2670613800        0.5474826836
H          1.9581770586       -1.9863357867        0.7506124428
