14
Energy:       3.3581337
C         -0.4030600000        1.2775200000        0.3106900000
C          0.4279700000        0.1346900000       -0.2729400000
C         -0.0212700000       -1.2535600000        0.2097000000
C          0.4098470019       -1.5658325721        1.6428538972
H          0.0054100000        2.2473400000       -0.0437000000
H         -0.3584500000        1.2581300000        1.4203400000
H         -1.4604600000        1.2138200000       -0.0171500000
H          1.4834100000        0.2838500000        0.0425000000
H          0.3897500000        0.1775100000       -1.3831400000
H          0.3728609196       -2.0355987549       -0.4750797329
H         -1.1316856371       -1.2885323733        0.1715192794
H          1.5146240701       -1.6005135347        1.7317915595
H          0.0131807598       -2.5601673238        1.9376993889
H          0.0067494034       -0.8018921578        2.3411240206
