14
Energy:       3.3581337
C         -0.4030600000        1.2775200000        0.3106900000
C          0.4279700000        0.1346900000       -0.2729400000
C         -0.0212700000       -1.2535600000        0.2097000000
C         -0.5897239690       -2.1289771017       -0.9073546562
H          0.0054100000        2.2473400000       -0.0437000000
H         -0.3584500000        1.2581300000        1.4203400000
H         -1.4604600000        1.2138200000       -0.0171500000
H          1.4834100000        0.2838500000        0.0425000000
H          0.3897500000        0.1775100000       -1.3831400000
H         -0.7777052639       -1.1445292688        1.0170196826
H          0.8646949666       -1.7736977897        0.6342308929
H         -1.5126797969       -1.6868475482       -1.3343429993
H         -0.8491456224       -3.1272704787       -0.4961487354
H          0.1632075762       -2.2619846606       -1.7130077287
