14
Energy:       3.3581337
C         -0.4030600000        1.2775200000        0.3106900000
C          0.4279700000        0.1346900000       -0.2729400000
C         -0.0212700000       -1.2535600000        0.2097000000
C         -0.7240067140       -1.2252356124        1.5671479591
H          0.0054100000        2.2473400000       -0.0437000000
H         -0.3584500000        1.2581300000        1.4203400000
H         -1.4604600000        1.2138200000       -0.0171500000
H          1.4834100000        0.2838500000        0.0425000000
H          0.3897500000        0.1775100000       -1.3831400000
H          0.8547708678       -1.9361380843        0.2595661753
H         -0.7361365527       -1.6627757963       -0.5367663190
H         -0.0395360592       -0.8767594426        2.3669662692
H         -1.0593539955       -2.2508857492        1.8289944172
H         -1.6132152336       -0.5609149320        1.5264043955
