14
Energy:       3.3581337
C         -0.4030600000        1.2775200000        0.3106900000
C          0.4279700000        0.1346900000       -0.2729400000
C         -0.0212700000       -1.2535600000        0.2097000000
C          0.3271200607       -2.3768931610       -0.7670564162
H          0.0054100000        2.2473400000       -0.0437000000
H         -0.3584500000        1.2581300000        1.4203400000
H         -1.4604600000        1.2138200000       -0.0171500000
H          1.4834100000        0.2838500000        0.0425000000
H          0.3897500000        0.1775100000       -1.3831400000
H         -1.1172158690       -1.2505365367        0.3960882762
H          0.4923831097       -1.4661378155        1.1723395362
H         -0.2032015472       -2.2490150117       -1.7324844138
H          0.0154663926       -3.3506176755       -0.3337988356
H          1.4226672660       -2.4035821070       -0.9479923630
