14
Energy:       3.3581337
C         -0.4030600000        1.2775200000        0.3106900000
C          0.4279700000        0.1346900000       -0.2729400000
C         -0.0212700000       -1.2535600000        0.2097000000
C          0.1928373158       -1.4731516717        1.7074461990
H          0.0054100000        2.2473400000       -0.0437000000
H         -0.3584500000        1.2581300000        1.4203400000
H         -1.4604600000        1.2138200000       -0.0171500000
H          1.4834100000        0.2838500000        0.0425000000
H          0.3897500000        0.1775100000       -1.3831400000
H          0.5152602626       -2.0421453522       -0.3613652311
H         -1.1084484096       -1.3552158221        0.0013423243
H          1.2699421905       -1.4389269061        1.9688248547
H         -0.1947419805       -2.4742329460        1.9913443170
H         -0.3537555438       -0.7025123784        2.2914197612
