14
Energy:       3.3581337
C         -0.4030600000        1.2775200000        0.3106900000
C          0.4279700000        0.1346900000       -0.2729400000
C         -0.0212700000       -1.2535600000        0.2097000000
C          0.9980471406       -2.3553725372       -0.0806580917
H          0.0054100000        2.2473400000       -0.0437000000
H         -0.3584500000        1.2581300000        1.4203400000
H         -1.4604600000        1.2138200000       -0.0171500000
H          1.4834100000        0.2838500000        0.0425000000
H          0.3897500000        0.1775100000       -1.3831400000
H         -0.9953692190       -1.5169440965       -0.2567832343
H         -0.1673477489       -1.2045823896        1.3105933674
H          1.1445671529       -2.4901356593       -1.1715365608
H          0.6286182052       -3.3166764771        0.3345485640
H          1.9718653751       -2.1140773284        0.3959218743
