14
Energy:       3.3581337
C         -0.4030600000        1.2775200000        0.3106900000
C          0.4279700000        0.1346900000       -0.2729400000
C         -0.0212700000       -1.2535600000        0.2097000000
C         -1.3234834376       -1.7276270387       -0.4359057059
H          0.0054100000        2.2473400000       -0.0437000000
H         -0.3584500000        1.2581300000        1.4203400000
H         -1.4604600000        1.2138200000       -0.0171500000
H          1.4834100000        0.2838500000        0.0425000000
H          0.3897500000        0.1775100000       -1.3831400000
H         -0.1356981889       -1.2485242715        1.3154702789
H          0.7753789662       -1.9833515821       -0.0519455479
H         -2.1711481699       -1.0666776728       -0.1634071100
H         -1.5606562690       -2.7511415222       -0.0765358128
H         -1.2171985083       -1.7555400080       -1.5411650310
