14
Energy:       3.3581337
C         -0.4030600000        1.2775200000        0.3106900000
C          0.4279700000        0.1346900000       -0.2729400000
C         -0.0212700000       -1.2535600000        0.2097000000
C         -0.3608254186       -2.2116945402       -0.9322222576
H          0.0054100000        2.2473400000       -0.0437000000
H         -0.3584500000        1.2581300000        1.4203400000
H         -1.4604600000        1.2138200000       -0.0171500000
H          1.4834100000        0.2838500000        0.0425000000
H          0.3897500000        0.1775100000       -1.3831400000
H         -0.9004615553       -1.1516194767        0.8823644166
H          0.8114812576       -1.7006566596        0.7947928485
H         -1.2257236368       -1.8446677052       -1.5211937527
H         -0.6312810204       -3.2032837490       -0.5120030547
H          0.5158586919       -2.3376725519       -1.6024672178
