4
	Energy:       0
C          0.00000        0.00000        0.00000
C          1.01000        0.00000        0.00000
C          0.00000        1.01000        0.00000
C          0.00000        0.00000        1.01000
