14
Energy:       3.3581337
C         -0.4030600000        1.2775200000        0.3106900000
C          0.4279700000        0.1346900000       -0.2729400000
C         -0.0212700000       -1.2535600000        0.2097000000
C         -1.5387796308       -1.4386353541        0.1949434658
H          0.0054100000        2.2473400000       -0.0437000000
H         -0.3584500000        1.2581300000        1.4203400000
H         -1.4604600000        1.2138200000       -0.0171500000
H          1.4834100000        0.2838500000        0.0425000000
H          0.3897500000        0.1775100000       -1.3831400000
H          0.3651088000       -1.4383650523        1.2355682148
H          0.4224068013       -2.0140794088       -0.4688756009
H         -2.0356979374       -0.7410533755        0.8992847375
H         -1.7859220084       -2.4742399539        0.5102581152
H         -1.9364808753       -1.2752469011       -0.8291716299
