14
Energy:       3.3581337
C         -0.4030600000        1.2775200000        0.3106900000
C          0.4279700000        0.1346900000       -0.2729400000
C         -0.0212700000       -1.2535600000        0.2097000000
C         -0.9304893023       -1.2034035395        1.4377515915
H          0.0054100000        2.2473400000       -0.0437000000
H         -0.3584500000        1.2581300000        1.4203400000
H         -1.4604600000        1.2138200000       -0.0171500000
H          1.4834100000        0.2838500000        0.0425000000
H          0.3897500000        0.1775100000       -1.3831400000
H          0.8691922202       -1.8806264967        0.4326612561
H         -0.5874021144       -1.7381549763       -0.6151429302
H         -0.3997050641       -0.7786796831        2.3138353693
H         -1.2507974472       -2.2336555654        1.7003597132
H         -1.8344574881       -0.5948905394        1.2227463744
